# There-stage  nano-system
    6540   atoms

   20 atom types
  -50.00000    50.00000  xlo xhi
  -50.00000    50.00000  ylo yhi
  -50.00000   332.16000  zlo zhi

 Masses

  1 12.01070
  2 12.01070
  3 12.01070
  4 12.01070
  5 12.01070
  6 12.01070
  7 12.01070
  8 12.01070
  9 12.01070
 10 12.01070
 11  1.00794
 12  1.00794
 13  1.00794
 14  1.00794
 15  1.00794
 16  1.00794
 17  1.00794
 18  1.00794
 19  1.00794
 20  1.00794

Atoms

       1     1    7.460    0.000    0.000
       2     1    7.320    1.410    0.000
       3     1    7.150    2.100    1.230
       4     1    6.630    3.420    1.230
       5     1    6.270    4.030    0.000
       6     1    5.400    5.150    0.000
       7     1    4.880    5.630    1.230
       8     1    3.730    6.460    1.230
       9     1    3.100    6.780    0.000
      10     1    1.760    7.250    0.000
      11     1    1.060    7.380    1.230
      12     1   -0.350    7.450    1.230
      13     1   -1.060    7.380    0.000
      14     1   -2.440    7.050    0.000
      15     1   -3.100    6.780    1.230
      16     1   -4.320    6.070    1.230
      17     1   -4.880    5.630    0.000
      18     1   -5.860    4.610    0.000
      19     1   -6.270    4.030    1.230
      20     1   -6.920    2.770    1.230
      21     1   -7.150    2.100    0.000
      22     1   -7.420    0.710    0.000
      23     1   -7.460    0.000    1.230
      24     1   -7.320   -1.410    1.230
      25     1   -7.150   -2.100    0.000
      26     1   -6.630   -3.420    0.000
      27     1   -6.270   -4.030    1.230
      28     1   -5.400   -5.150    1.230
      29     1   -4.880   -5.630    0.000
      30     1   -3.730   -6.460    0.000
      31     1   -3.100   -6.780    1.230
      32     1   -1.760   -7.250    1.230
      33     1   -1.060   -7.380    0.000
      34     1    0.350   -7.450    0.000
      35     1    1.060   -7.380    1.230
      36     1    2.440   -7.050    1.230
      37     1    3.100   -6.780    0.000
      38     1    4.320   -6.070    0.000
      39     1    4.880   -5.630    1.230
      40     1    5.860   -4.610    1.230
      41     1    6.270   -4.030    0.000
      42     1    6.920   -2.770    0.000
      43     1    7.150   -2.100    1.230
      44     1    7.420   -0.710    1.230
      45     1    7.460    0.000    2.460
      46     1    7.320    1.410    2.460
      47     1    7.150    2.100    3.680
      48     1    6.630    3.420    3.680
      49     1    6.270    4.030    2.460
      50     1    5.400    5.150    2.460
      51     1    4.880    5.630    3.680
      52     1    3.730    6.460    3.680
      53     1    3.100    6.780    2.460
      54     1    1.760    7.250    2.460
      55     1    1.060    7.380    3.680
      56     1   -0.350    7.450    3.680
      57     1   -1.060    7.380    2.460
      58     1   -2.440    7.050    2.460
      59     1   -3.100    6.780    3.680
      60     1   -4.320    6.070    3.680
      61     1   -4.880    5.630    2.460
      62     1   -5.860    4.610    2.460
      63     1   -6.270    4.030    3.680
      64     1   -6.920    2.770    3.680
      65     1   -7.150    2.100    2.460
      66     1   -7.420    0.710    2.460
      67     1   -7.460    0.000    3.680
      68     1   -7.320   -1.410    3.680
      69     1   -7.150   -2.100    2.460
      70     1   -6.630   -3.420    2.460
      71     1   -6.270   -4.030    3.680
      72     1   -5.400   -5.150    3.680
      73     1   -4.880   -5.630    2.460
      74     1   -3.730   -6.460    2.460
      75     1   -3.100   -6.780    3.680
      76     1   -1.760   -7.250    3.680
      77     1   -1.060   -7.380    2.460
      78     1    0.350   -7.450    2.460
      79     1    1.060   -7.380    3.680
      80     1    2.440   -7.050    3.680
      81     1    3.100   -6.780    2.460
      82     1    4.320   -6.070    2.460
      83     1    4.880   -5.630    3.680
      84     1    5.860   -4.610    3.680
      85     1    6.270   -4.030    2.460
      86     1    6.920   -2.770    2.460
      87     1    7.150   -2.100    3.680
      88     1    7.420   -0.710    3.680
      89     1    7.460    0.000    4.910
      90     1    7.320    1.410    4.910
      91     1    7.150    2.100    6.140
      92     1    6.630    3.420    6.140
      93     1    6.270    4.030    4.910
      94     1    5.400    5.150    4.910
      95     1    4.880    5.630    6.140
      96     1    3.730    6.460    6.140
      97     1    3.100    6.780    4.910
      98     1    1.760    7.250    4.910
      99     1    1.060    7.380    6.140
     100     1   -0.350    7.450    6.140
     101     1   -1.060    7.380    4.910
     102     1   -2.440    7.050    4.910
     103     1   -3.100    6.780    6.140
     104     1   -4.320    6.070    6.140
     105     1   -4.880    5.630    4.910
     106     1   -5.860    4.610    4.910
     107     1   -6.270    4.030    6.140
     108     1   -6.920    2.770    6.140
     109     1   -7.150    2.100    4.910
     110     1   -7.420    0.710    4.910
     111     1   -7.460    0.000    6.140
     112     1   -7.320   -1.410    6.140
     113     1   -7.150   -2.100    4.910
     114     1   -6.630   -3.420    4.910
     115     1   -6.270   -4.030    6.140
     116     1   -5.400   -5.150    6.140
     117     1   -4.880   -5.630    4.910
     118     1   -3.730   -6.460    4.910
     119     1   -3.100   -6.780    6.140
     120     1   -1.760   -7.250    6.140
     121     1   -1.060   -7.380    4.910
     122     1    0.350   -7.450    4.910
     123     1    1.060   -7.380    6.140
     124     1    2.440   -7.050    6.140
     125     1    3.100   -6.780    4.910
     126     1    4.320   -6.070    4.910
     127     1    4.880   -5.630    6.140
     128     1    5.860   -4.610    6.140
     129     1    6.270   -4.030    4.910
     130     1    6.920   -2.770    4.910
     131     1    7.150   -2.100    6.140
     132     1    7.420   -0.710    6.140
     133     1    7.460    0.000    7.370
     134     1    7.320    1.410    7.370
     135     1    7.150    2.100    8.600
     136     1    6.630    3.420    8.600
     137     1    6.270    4.030    7.370
     138     1    5.400    5.150    7.370
     139     1    4.880    5.630    8.600
     140     1    3.730    6.460    8.600
     141     1    3.100    6.780    7.370
     142     1    1.760    7.250    7.370
     143     1    1.060    7.380    8.600
     144     1   -0.350    7.450    8.600
     145     1   -1.060    7.380    7.370
     146     1   -2.440    7.050    7.370
     147     1   -3.100    6.780    8.600
     148     1   -4.320    6.070    8.600
     149     1   -4.880    5.630    7.370
     150     1   -5.860    4.610    7.370
     151     1   -6.270    4.030    8.600
     152     1   -6.920    2.770    8.600
     153     1   -7.150    2.100    7.370
     154     1   -7.420    0.710    7.370
     155     1   -7.460    0.000    8.600
     156     1   -7.320   -1.410    8.600
     157     1   -7.150   -2.100    7.370
     158     1   -6.630   -3.420    7.370
     159     1   -6.270   -4.030    8.600
     160     1   -5.400   -5.150    8.600
     161     1   -4.880   -5.630    7.370
     162     1   -3.730   -6.460    7.370
     163     1   -3.100   -6.780    8.600
     164     1   -1.760   -7.250    8.600
     165     1   -1.060   -7.380    7.370
     166     1    0.350   -7.450    7.370
     167     1    1.060   -7.380    8.600
     168     1    2.440   -7.050    8.600
     169     1    3.100   -6.780    7.370
     170     1    4.320   -6.070    7.370
     171     1    4.880   -5.630    8.600
     172     1    5.860   -4.610    8.600
     173     1    6.270   -4.030    7.370
     174     1    6.920   -2.770    7.370
     175     1    7.150   -2.100    8.600
     176     1    7.420   -0.710    8.600
     177     1    7.460    0.000    9.820
     178     1    7.320    1.410    9.820
     179     1    7.150    2.100   11.050
     180     1    6.630    3.420   11.050
     181     1    6.270    4.030    9.820
     182     1    5.400    5.150    9.820
     183     1    4.880    5.630   11.050
     184     1    3.730    6.460   11.050
     185     1    3.100    6.780    9.820
     186     1    1.760    7.250    9.820
     187     1    1.060    7.380   11.050
     188     1   -0.350    7.450   11.050
     189     1   -1.060    7.380    9.820
     190     1   -2.440    7.050    9.820
     191     1   -3.100    6.780   11.050
     192     1   -4.320    6.070   11.050
     193     1   -4.880    5.630    9.820
     194     1   -5.860    4.610    9.820
     195     1   -6.270    4.030   11.050
     196     1   -6.920    2.770   11.050
     197     1   -7.150    2.100    9.820
     198     1   -7.420    0.710    9.820
     199     1   -7.460    0.000   11.050
     200     1   -7.320   -1.410   11.050
     201     1   -7.150   -2.100    9.820
     202     1   -6.630   -3.420    9.820
     203     1   -6.270   -4.030   11.050
     204     1   -5.400   -5.150   11.050
     205     1   -4.880   -5.630    9.820
     206     1   -3.730   -6.460    9.820
     207     1   -3.100   -6.780   11.050
     208     1   -1.760   -7.250   11.050
     209     1   -1.060   -7.380    9.820
     210     1    0.350   -7.450    9.820
     211     1    1.060   -7.380   11.050
     212     1    2.440   -7.050   11.050
     213     1    3.100   -6.780    9.820
     214     1    4.320   -6.070    9.820
     215     1    4.880   -5.630   11.050
     216     1    5.860   -4.610   11.050
     217     1    6.270   -4.030    9.820
     218     1    6.920   -2.770    9.820
     219     1    7.150   -2.100   11.050
     220     1    7.420   -0.710   11.050
     221     1    7.460    0.000   12.280
     222     1    7.320    1.410   12.280
     223     1    7.150    2.100   13.510
     224     1    6.630    3.420   13.510
     225     1    6.270    4.030   12.280
     226     1    5.400    5.150   12.280
     227     1    4.880    5.630   13.510
     228     1    3.730    6.460   13.510
     229     1    3.100    6.780   12.280
     230     1    1.760    7.250   12.280
     231     1    1.060    7.380   13.510
     232     1   -0.350    7.450   13.510
     233     1   -1.060    7.380   12.280
     234     1   -2.440    7.050   12.280
     235     1   -3.100    6.780   13.510
     236     1   -4.320    6.070   13.510
     237     1   -4.880    5.630   12.280
     238     1   -5.860    4.610   12.280
     239     1   -6.270    4.030   13.510
     240     1   -6.920    2.770   13.510
     241     1   -7.150    2.100   12.280
     242     1   -7.420    0.710   12.280
     243     1   -7.460    0.000   13.510
     244     1   -7.320   -1.410   13.510
     245     1   -7.150   -2.100   12.280
     246     1   -6.630   -3.420   12.280
     247     1   -6.270   -4.030   13.510
     248     1   -5.400   -5.150   13.510
     249     1   -4.880   -5.630   12.280
     250     1   -3.730   -6.460   12.280
     251     1   -3.100   -6.780   13.510
     252     1   -1.760   -7.250   13.510
     253     1   -1.060   -7.380   12.280
     254     1    0.350   -7.450   12.280
     255     1    1.060   -7.380   13.510
     256     1    2.440   -7.050   13.510
     257     1    3.100   -6.780   12.280
     258     1    4.320   -6.070   12.280
     259     1    4.880   -5.630   13.510
     260     1    5.860   -4.610   13.510
     261     1    6.270   -4.030   12.280
     262     1    6.920   -2.770   12.280
     263     1    7.150   -2.100   13.510
     264     1    7.420   -0.710   13.510
     265     1    7.460    0.000   14.740
     266     1    7.320    1.410   14.740
     267     1    7.150    2.100   15.960
     268     1    6.630    3.420   15.960
     269     1    6.270    4.030   14.740
     270     1    5.400    5.150   14.740
     271     1    4.880    5.630   15.960
     272     1    3.730    6.460   15.960
     273     1    3.100    6.780   14.740
     274     1    1.760    7.250   14.740
     275     1    1.060    7.380   15.960
     276     1   -0.350    7.450   15.960
     277     1   -1.060    7.380   14.740
     278     1   -2.440    7.050   14.740
     279     1   -3.100    6.780   15.960
     280     1   -4.320    6.070   15.960
     281     1   -4.880    5.630   14.740
     282     1   -5.860    4.610   14.740
     283     1   -6.270    4.030   15.960
     284     1   -6.920    2.770   15.960
     285     1   -7.150    2.100   14.740
     286     1   -7.420    0.710   14.740
     287     1   -7.460    0.000   15.960
     288     1   -7.320   -1.410   15.960
     289     1   -7.150   -2.100   14.740
     290     1   -6.630   -3.420   14.740
     291     1   -6.270   -4.030   15.960
     292     1   -5.400   -5.150   15.960
     293     1   -4.880   -5.630   14.740
     294     1   -3.730   -6.460   14.740
     295     1   -3.100   -6.780   15.960
     296     1   -1.760   -7.250   15.960
     297     1   -1.060   -7.380   14.740
     298     1    0.350   -7.450   14.740
     299     1    1.060   -7.380   15.960
     300     1    2.440   -7.050   15.960
     301     1    3.100   -6.780   14.740
     302     1    4.320   -6.070   14.740
     303     1    4.880   -5.630   15.960
     304     1    5.860   -4.610   15.960
     305     1    6.270   -4.030   14.740
     306     1    6.920   -2.770   14.740
     307     1    7.150   -2.100   15.960
     308     1    7.420   -0.710   15.960
     309     1    7.460    0.000   17.190
     310     1    7.320    1.410   17.190
     311     1    7.150    2.100   18.420
     312     1    6.630    3.420   18.420
     313     1    6.270    4.030   17.190
     314     1    5.400    5.150   17.190
     315     1    4.880    5.630   18.420
     316     1    3.730    6.460   18.420
     317     1    3.100    6.780   17.190
     318     1    1.760    7.250   17.190
     319     1    1.060    7.380   18.420
     320     1   -0.350    7.450   18.420
     321     1   -1.060    7.380   17.190
     322     1   -2.440    7.050   17.190
     323     1   -3.100    6.780   18.420
     324     1   -4.320    6.070   18.420
     325     1   -4.880    5.630   17.190
     326     1   -5.860    4.610   17.190
     327     1   -6.270    4.030   18.420
     328     1   -6.920    2.770   18.420
     329     1   -7.150    2.100   17.190
     330     1   -7.420    0.710   17.190
     331     1   -7.460    0.000   18.420
     332     1   -7.320   -1.410   18.420
     333     1   -7.150   -2.100   17.190
     334     1   -6.630   -3.420   17.190
     335     1   -6.270   -4.030   18.420
     336     1   -5.400   -5.150   18.420
     337     1   -4.880   -5.630   17.190
     338     1   -3.730   -6.460   17.190
     339     1   -3.100   -6.780   18.420
     340     1   -1.760   -7.250   18.420
     341     1   -1.060   -7.380   17.190
     342     1    0.350   -7.450   17.190
     343     1    1.060   -7.380   18.420
     344     1    2.440   -7.050   18.420
     345     1    3.100   -6.780   17.190
     346     1    4.320   -6.070   17.190
     347     1    4.880   -5.630   18.420
     348     1    5.860   -4.610   18.420
     349     1    6.270   -4.030   17.190
     350     1    6.920   -2.770   17.190
     351     1    7.150   -2.100   18.420
     352     1    7.420   -0.710   18.420
     353     1    7.460    0.000   19.650
     354     1    7.320    1.410   19.650
     355     1    7.150    2.100   20.880
     356     1    6.630    3.420   20.880
     357     1    6.270    4.030   19.650
     358     1    5.400    5.150   19.650
     359     1    4.880    5.630   20.880
     360     1    3.730    6.460   20.880
     361     1    3.100    6.780   19.650
     362     1    1.760    7.250   19.650
     363     1    1.060    7.380   20.880
     364     1   -0.350    7.450   20.880
     365     1   -1.060    7.380   19.650
     366     1   -2.440    7.050   19.650
     367     1   -3.100    6.780   20.880
     368     1   -4.320    6.070   20.880
     369     1   -4.880    5.630   19.650
     370     1   -5.860    4.610   19.650
     371     1   -6.270    4.030   20.880
     372     1   -6.920    2.770   20.880
     373     1   -7.150    2.100   19.650
     374     1   -7.420    0.710   19.650
     375     1   -7.460    0.000   20.880
     376     1   -7.320   -1.410   20.880
     377     1   -7.150   -2.100   19.650
     378     1   -6.630   -3.420   19.650
     379     1   -6.270   -4.030   20.880
     380     1   -5.400   -5.150   20.880
     381     1   -4.880   -5.630   19.650
     382     1   -3.730   -6.460   19.650
     383     1   -3.100   -6.780   20.880
     384     1   -1.760   -7.250   20.880
     385     1   -1.060   -7.380   19.650
     386     1    0.350   -7.450   19.650
     387     1    1.060   -7.380   20.880
     388     1    2.440   -7.050   20.880
     389     1    3.100   -6.780   19.650
     390     1    4.320   -6.070   19.650
     391     1    4.880   -5.630   20.880
     392     1    5.860   -4.610   20.880
     393     1    6.270   -4.030   19.650
     394     1    6.920   -2.770   19.650
     395     1    7.150   -2.100   20.880
     396     1    7.420   -0.710   20.880
     397     1    7.460    0.000   22.100
     398     1    7.320    1.410   22.100
     399     1    7.150    2.100   23.330
     400     1    6.630    3.420   23.330
     401     1    6.270    4.030   22.100
     402     1    5.400    5.150   22.100
     403     1    4.880    5.630   23.330
     404     1    3.730    6.460   23.330
     405     1    3.100    6.780   22.100
     406     1    1.760    7.250   22.100
     407     1    1.060    7.380   23.330
     408     1   -0.350    7.450   23.330
     409     1   -1.060    7.380   22.100
     410     1   -2.440    7.050   22.100
     411     1   -3.100    6.780   23.330
     412     1   -4.320    6.070   23.330
     413     1   -4.880    5.630   22.100
     414     1   -5.860    4.610   22.100
     415     1   -6.270    4.030   23.330
     416     1   -6.920    2.770   23.330
     417     1   -7.150    2.100   22.100
     418     1   -7.420    0.710   22.100
     419     1   -7.460    0.000   23.330
     420     1   -7.320   -1.410   23.330
     421     1   -7.150   -2.100   22.100
     422     1   -6.630   -3.420   22.100
     423     1   -6.270   -4.030   23.330
     424     1   -5.400   -5.150   23.330
     425     1   -4.880   -5.630   22.100
     426     1   -3.730   -6.460   22.100
     427     1   -3.100   -6.780   23.330
     428     1   -1.760   -7.250   23.330
     429     1   -1.060   -7.380   22.100
     430     1    0.350   -7.450   22.100
     431     1    1.060   -7.380   23.330
     432     1    2.440   -7.050   23.330
     433     1    3.100   -6.780   22.100
     434     1    4.320   -6.070   22.100
     435     1    4.880   -5.630   23.330
     436     1    5.860   -4.610   23.330
     437     1    6.270   -4.030   22.100
     438     1    6.920   -2.770   22.100
     439     1    7.150   -2.100   23.330
     440     1    7.420   -0.710   23.330
     441     1    7.460    0.000   24.560
     442     1    7.320    1.410   24.560
     443     1    7.150    2.100   25.790
     444     1    6.630    3.420   25.790
     445     1    6.270    4.030   24.560
     446     1    5.400    5.150   24.560
     447     1    4.880    5.630   25.790
     448     1    3.730    6.460   25.790
     449     1    3.100    6.780   24.560
     450     1    1.760    7.250   24.560
     451     1    1.060    7.380   25.790
     452     1   -0.350    7.450   25.790
     453     1   -1.060    7.380   24.560
     454     1   -2.440    7.050   24.560
     455     1   -3.100    6.780   25.790
     456     1   -4.320    6.070   25.790
     457     1   -4.880    5.630   24.560
     458     1   -5.860    4.610   24.560
     459     1   -6.270    4.030   25.790
     460     1   -6.920    2.770   25.790
     461     1   -7.150    2.100   24.560
     462     1   -7.420    0.710   24.560
     463     1   -7.460    0.000   25.790
     464     1   -7.320   -1.410   25.790
     465     1   -7.150   -2.100   24.560
     466     1   -6.630   -3.420   24.560
     467     1   -6.270   -4.030   25.790
     468     1   -5.400   -5.150   25.790
     469     1   -4.880   -5.630   24.560
     470     1   -3.730   -6.460   24.560
     471     1   -3.100   -6.780   25.790
     472     1   -1.760   -7.250   25.790
     473     1   -1.060   -7.380   24.560
     474     1    0.350   -7.450   24.560
     475     1    1.060   -7.380   25.790
     476     1    2.440   -7.050   25.790
     477     1    3.100   -6.780   24.560
     478     1    4.320   -6.070   24.560
     479     1    4.880   -5.630   25.790
     480     1    5.860   -4.610   25.790
     481     1    6.270   -4.030   24.560
     482     1    6.920   -2.770   24.560
     483     1    7.150   -2.100   25.790
     484     1    7.420   -0.710   25.790
     485     1    7.460    0.000   27.020
     486     1    7.320    1.410   27.020
     487     1    7.150    2.100   28.240
     488     1    6.630    3.420   28.240
     489     1    6.270    4.030   27.020
     490     1    5.400    5.150   27.020
     491     1    4.880    5.630   28.240
     492     1    3.730    6.460   28.240
     493     1    3.100    6.780   27.020
     494     1    1.760    7.250   27.020
     495     1    1.060    7.380   28.240
     496     1   -0.350    7.450   28.240
     497     1   -1.060    7.380   27.020
     498     1   -2.440    7.050   27.020
     499     1   -3.100    6.780   28.240
     500     1   -4.320    6.070   28.240
     501     1   -4.880    5.630   27.020
     502     1   -5.860    4.610   27.020
     503     1   -6.270    4.030   28.240
     504     1   -6.920    2.770   28.240
     505     1   -7.150    2.100   27.020
     506     1   -7.420    0.710   27.020
     507     1   -7.460    0.000   28.240
     508     1   -7.320   -1.410   28.240
     509     1   -7.150   -2.100   27.020
     510     1   -6.630   -3.420   27.020
     511     1   -6.270   -4.030   28.240
     512     1   -5.400   -5.150   28.240
     513     1   -4.880   -5.630   27.020
     514     1   -3.730   -6.460   27.020
     515     1   -3.100   -6.780   28.240
     516     1   -1.760   -7.250   28.240
     517     1   -1.060   -7.380   27.020
     518     1    0.350   -7.450   27.020
     519     1    1.060   -7.380   28.240
     520     1    2.440   -7.050   28.240
     521     1    3.100   -6.780   27.020
     522     1    4.320   -6.070   27.020
     523     1    4.880   -5.630   28.240
     524     1    5.860   -4.610   28.240
     525     1    6.270   -4.030   27.020
     526     1    6.920   -2.770   27.020
     527     1    7.150   -2.100   28.240
     528     1    7.420   -0.710   28.240
     529     1    7.460    0.000   29.470
     530     1    7.320    1.410   29.470
     531     1    7.150    2.100   30.700
     532     1    6.630    3.420   30.700
     533     1    6.270    4.030   29.470
     534     1    5.400    5.150   29.470
     535     1    4.880    5.630   30.700
     536     1    3.730    6.460   30.700
     537     1    3.100    6.780   29.470
     538     1    1.760    7.250   29.470
     539     1    1.060    7.380   30.700
     540     1   -0.350    7.450   30.700
     541     1   -1.060    7.380   29.470
     542     1   -2.440    7.050   29.470
     543     1   -3.100    6.780   30.700
     544     1   -4.320    6.070   30.700
     545     1   -4.880    5.630   29.470
     546     1   -5.860    4.610   29.470
     547     1   -6.270    4.030   30.700
     548     1   -6.920    2.770   30.700
     549     1   -7.150    2.100   29.470
     550     1   -7.420    0.710   29.470
     551     1   -7.460    0.000   30.700
     552     1   -7.320   -1.410   30.700
     553     1   -7.150   -2.100   29.470
     554     1   -6.630   -3.420   29.470
     555     1   -6.270   -4.030   30.700
     556     1   -5.400   -5.150   30.700
     557     1   -4.880   -5.630   29.470
     558     1   -3.730   -6.460   29.470
     559     1   -3.100   -6.780   30.700
     560     1   -1.760   -7.250   30.700
     561     1   -1.060   -7.380   29.470
     562     1    0.350   -7.450   29.470
     563     1    1.060   -7.380   30.700
     564     1    2.440   -7.050   30.700
     565     1    3.100   -6.780   29.470
     566     1    4.320   -6.070   29.470
     567     1    4.880   -5.630   30.700
     568     1    5.860   -4.610   30.700
     569     1    6.270   -4.030   29.470
     570     1    6.920   -2.770   29.470
     571     1    7.150   -2.100   30.700
     572     1    7.420   -0.710   30.700
     573     2    7.460    0.000   34.700
     574     2    7.320    1.410   34.700
     575     2    7.150    2.100   35.930
     576     2    6.630    3.420   35.930
     577     2    6.270    4.030   34.700
     578     2    5.400    5.150   34.700
     579     2    4.880    5.630   35.930
     580     2    3.730    6.460   35.930
     581     2    3.100    6.780   34.700
     582     2    1.760    7.250   34.700
     583     2    1.060    7.380   35.930
     584     2   -0.350    7.450   35.930
     585     2   -1.060    7.380   34.700
     586     2   -2.440    7.050   34.700
     587     2   -3.100    6.780   35.930
     588     2   -4.320    6.070   35.930
     589     2   -4.880    5.630   34.700
     590     2   -5.860    4.610   34.700
     591     2   -6.270    4.030   35.930
     592     2   -6.920    2.770   35.930
     593     2   -7.150    2.100   34.700
     594     2   -7.420    0.710   34.700
     595     2   -7.460    0.000   35.930
     596     2   -7.320   -1.410   35.930
     597     2   -7.150   -2.100   34.700
     598     2   -6.630   -3.420   34.700
     599     2   -6.270   -4.030   35.930
     600     2   -5.400   -5.150   35.930
     601     2   -4.880   -5.630   34.700
     602     2   -3.730   -6.460   34.700
     603     2   -3.100   -6.780   35.930
     604     2   -1.760   -7.250   35.930
     605     2   -1.060   -7.380   34.700
     606     2    0.350   -7.450   34.700
     607     2    1.060   -7.380   35.930
     608     2    2.440   -7.050   35.930
     609     2    3.100   -6.780   34.700
     610     2    4.320   -6.070   34.700
     611     2    4.880   -5.630   35.930
     612     2    5.860   -4.610   35.930
     613     2    6.270   -4.030   34.700
     614     2    6.920   -2.770   34.700
     615     2    7.150   -2.100   35.930
     616     2    7.420   -0.710   35.930
     617     2    7.460    0.000   37.160
     618     2    7.320    1.410   37.160
     619     2    7.150    2.100   38.380
     620     2    6.630    3.420   38.380
     621     2    6.270    4.030   37.160
     622     2    5.400    5.150   37.160
     623     2    4.880    5.630   38.380
     624     2    3.730    6.460   38.380
     625     2    3.100    6.780   37.160
     626     2    1.760    7.250   37.160
     627     2    1.060    7.380   38.380
     628     2   -0.350    7.450   38.380
     629     2   -1.060    7.380   37.160
     630     2   -2.440    7.050   37.160
     631     2   -3.100    6.780   38.380
     632     2   -4.320    6.070   38.380
     633     2   -4.880    5.630   37.160
     634     2   -5.860    4.610   37.160
     635     2   -6.270    4.030   38.380
     636     2   -6.920    2.770   38.380
     637     2   -7.150    2.100   37.160
     638     2   -7.420    0.710   37.160
     639     2   -7.460    0.000   38.380
     640     2   -7.320   -1.410   38.380
     641     2   -7.150   -2.100   37.160
     642     2   -6.630   -3.420   37.160
     643     2   -6.270   -4.030   38.380
     644     2   -5.400   -5.150   38.380
     645     2   -4.880   -5.630   37.160
     646     2   -3.730   -6.460   37.160
     647     2   -3.100   -6.780   38.380
     648     2   -1.760   -7.250   38.380
     649     2   -1.060   -7.380   37.160
     650     2    0.350   -7.450   37.160
     651     2    1.060   -7.380   38.380
     652     2    2.440   -7.050   38.380
     653     2    3.100   -6.780   37.160
     654     2    4.320   -6.070   37.160
     655     2    4.880   -5.630   38.380
     656     2    5.860   -4.610   38.380
     657     2    6.270   -4.030   37.160
     658     2    6.920   -2.770   37.160
     659     2    7.150   -2.100   38.380
     660     2    7.420   -0.710   38.380
     661     2    7.460    0.000   39.610
     662     2    7.320    1.410   39.610
     663     2    7.150    2.100   40.840
     664     2    6.630    3.420   40.840
     665     2    6.270    4.030   39.610
     666     2    5.400    5.150   39.610
     667     2    4.880    5.630   40.840
     668     2    3.730    6.460   40.840
     669     2    3.100    6.780   39.610
     670     2    1.760    7.250   39.610
     671     2    1.060    7.380   40.840
     672     2   -0.350    7.450   40.840
     673     2   -1.060    7.380   39.610
     674     2   -2.440    7.050   39.610
     675     2   -3.100    6.780   40.840
     676     2   -4.320    6.070   40.840
     677     2   -4.880    5.630   39.610
     678     2   -5.860    4.610   39.610
     679     2   -6.270    4.030   40.840
     680     2   -6.920    2.770   40.840
     681     2   -7.150    2.100   39.610
     682     2   -7.420    0.710   39.610
     683     2   -7.460    0.000   40.840
     684     2   -7.320   -1.410   40.840
     685     2   -7.150   -2.100   39.610
     686     2   -6.630   -3.420   39.610
     687     2   -6.270   -4.030   40.840
     688     2   -5.400   -5.150   40.840
     689     2   -4.880   -5.630   39.610
     690     2   -3.730   -6.460   39.610
     691     2   -3.100   -6.780   40.840
     692     2   -1.760   -7.250   40.840
     693     2   -1.060   -7.380   39.610
     694     2    0.350   -7.450   39.610
     695     2    1.060   -7.380   40.840
     696     2    2.440   -7.050   40.840
     697     2    3.100   -6.780   39.610
     698     2    4.320   -6.070   39.610
     699     2    4.880   -5.630   40.840
     700     2    5.860   -4.610   40.840
     701     2    6.270   -4.030   39.610
     702     2    6.920   -2.770   39.610
     703     2    7.150   -2.100   40.840